nqpoint: 306    
npath: 6      
segment_nqpoint:
- 51
- 51
- 51
- 51
- 51
- 51
labels:
- [ '$\Gamma$', '$\mathrm{X}$' ]
- [ '$\mathrm{X}$', '$\mathrm{U}$' ]
- [ '$\mathrm{K}$', '$\Gamma$' ]
- [ '$\Gamma$', '$\mathrm{L}$' ]
- [ '$\mathrm{L}$', '$\mathrm{W}$' ]
- [ '$\mathrm{W}$', '$\mathrm{X}$' ]
reciprocal_lattice:
- [  -0.18004047,   0.18004047,   0.18004047 ] # a*
- [   0.18004047,  -0.18004047,   0.18004047 ] # b*
- [   0.18004047,   0.18004047,  -0.18004047 ] # c*
natom: 2      
lattice:
- [     0.000000000000000,     2.777153320000000,     2.777153320000000 ] # a
- [     2.777153320000000,     0.000000000000000,     2.777153320000000 ] # b
- [     2.777153320000000,     2.777153320000000,     0.000000000000000 ] # c
points:
- symbol: S  # 1
  coordinates: [  0.000000000000000,  0.000000000000000,  0.000000000000000 ]
  mass: 32.065000
- symbol: Yb # 2
  coordinates: [  0.500000000000000,  0.500000000000000,  0.500000000000000 ]
  mass: 173.054000

phonon:
- q-position: [    0.0000000,    0.0000000,    0.0000000 ]
  distance:    0.0000000
  band:
  - # 1
    frequency:    0.0018821428
    eigenvector:
    - # atom 1
      - [ -0.00000000000000,  0.00000000000000 ]
      - [  0.39540543666799,  0.00000000000000 ]
      - [  0.00000000000000,  0.00000000000000 ]
    - # atom 2
      - [  0.00000000000000,  0.00000000000000 ]
      - [  0.91850669058717,  0.00000000000000 ]
      - [ -0.00000000000000,  0.00000000000000 ]
  - # 2
    frequency:    0.0018821428
    eigenvector:
    - # atom 1
      - [ -0.00000000000000,  0.00000000000000 ]
      - [  0.00000000000000,  0.00000000000000 ]
      - [  0.39540543666799,  0.00000000000000 ]
    - # atom 2
      - [ -0.00000000000000,  0.00000000000000 ]
      - [  0.00000000000000,  0.00000000000000 ]
      - [  0.91850669058717,  0.00000000000000 ]
  - # 3
    frequency:    0.0018821428
    eigenvector:
    - # atom 1
      - [ -0.39540543666799,  0.00000000000000 ]
      - [  0.00000000000000,  0.00000000000000 ]
      - [  0.00000000000000,  0.00000000000000 ]
    - # atom 2
      - [ -0.91850669058717,  0.00000000000000 ]
      - [  0.00000000000000,  0.00000000000000 ]
      - [ -0.00000000000000,  0.00000000000000 ]
  - # 4
    frequency:    6.0287631720
    eigenvector:
    - # atom 1
      - [  0.00000000000000,  0.00000000000000 ]
      - [  0.00000000000000,  0.00000000000000 ]
      - [ -0.91850669058717,  0.00000000000000 ]
    - # atom 2
      - [ -0.00000000000000,  0.00000000000000 ]
      - [ -0.00000000000000,  0.00000000000000 ]
      - [  0.39540543666799,  0.00000000000000 ]
  - # 5
    frequency:    6.0287631720
    eigenvector:
    - # atom 1
      - [  0.00000000000000,  0.00000000000000 ]
      - [  0.91850669058717,  0.00000000000000 ]
      - [  0.00000000000000,  0.00000000000000 ]
    - # atom 2
      - [  0.00000000000000,  0.00000000000000 ]
      - [ -0.39540543666799,  0.00000000000000 ]
      - [ -0.00000000000000,  0.00000000000000 ]
  - # 6
    frequency:    6.0287631720
    eigenvector:
    - # atom 1
      - [ -0.91850669058717,  0.00000000000000 ]
      - [  0.00000000000000,  0.00000000000000 ]
      - [  0.00000000000000,  0.00000000000000 ]
    - # atom 2
      - [  0.39540543666799,  0.00000000000000 ]
      - [  0.00000000000000,  0.00000000000000 ]
      - [  0.00000000000000,  0.00000000000000 ]

- q-position: [    0.0100000,    0.0000000,    0.0100000 ]
  distance:    0.0036008
  band:
  - # 1
    frequency:    0.0731122961
    eigenvector:
    - # atom 1
      - [ -0.39525596425011,  0.00000000000000 ]
      - [  0.00000000000000,  0.00000000000000 ]
      - [  0.00000000000000,  0.00000000000000 ]
    - # atom 2
      - [ -0.91857102214511,  0.00000000000000 ]
      - [  0.00000000000000,  0.00000000000000 ]
      - [  0.00000000000000,  0.00000000000000 ]
  - # 2
    frequency:    0.0731122961
    eigenvector:
    - # atom 1
      - [  0.00000000000000,  0.00000000000000 ]
      - [ -0.00000000000000,  0.00000000000001 ]
      - [ -0.39525596425011,  0.00000000000001 ]
    - # atom 2
      - [  0.00000000000000,  0.00000000000000 ]
      - [ -0.00000000000000,  0.00000000000003 ]
      - [ -0.91857102214511,  0.00000000000002 ]
  - # 3
    frequency:    0.1688937651
    eigenvector:
    - # atom 1
      - [  0.00000000000000,  0.00000000000000 ]
      - [ -0.00000000000000, -0.39472082524010 ]
      - [ -0.00000000000001,  0.00000000000000 ]
    - # atom 2
      - [ -0.00000000000000,  0.00000000000000 ]
      - [ -0.00000000000000, -0.91880110476739 ]
      - [ -0.00000000000003,  0.00000000000000 ]
  - # 4
    frequency:    6.0297870384
    eigenvector:
    - # atom 1
      - [  0.00000000000000,  0.00000000000000 ]
      - [  0.00000000000000, -0.00000000000003 ]
      - [  0.91857102214511, -0.00000000000002 ]
    - # atom 2
      - [  0.00000000000000,  0.00000000000000 ]
      - [ -0.00000000000000,  0.00000000000001 ]
      - [ -0.39525596425011,  0.00000000000001 ]
  - # 5
    frequency:    6.0297870384
    eigenvector:
    - # atom 1
      - [ -0.91857102214511,  0.00000000000000 ]
      - [  0.00000000000000,  0.00000000000000 ]
      - [  0.00000000000000, -0.00000000000000 ]
    - # atom 2
      - [  0.39525596425011,  0.00000000000000 ]
      - [ -0.00000000000000, -0.00000000000000 ]
      - [ -0.00000000000000,  0.00000000000000 ]
  - # 6
    frequency:    6.0370409550
    eigenvector:
    - # atom 1
      - [ -0.00000000000000,  0.00000000000000 ]
      - [  0.00000000000000,  0.91880110476739 ]
      - [  0.00000000000003, -0.00000000000000 ]
    - # atom 2
      - [ -0.00000000000000,  0.00000000000000 ]
      - [ -0.00000000000000, -0.39472082524010 ]
      - [ -0.00000000000001,  0.00000000000000 ]

- q-position: [    0.0200000,    0.0000000,    0.0200000 ]
  distance:    0.0072016
  band:
  - # 1
    frequency:    0.1460493792
    eigenvector:
    - # atom 1
      - [  0.39480891741082,  0.00000000000000 ]
      - [ -0.00000000000001,  0.00000000000000 ]
      - [ -0.00002014451217,  0.00000000000000 ]
    - # atom 2
      - [  0.91876325358032,  0.00000000000000 ]
      - [ -0.00000000000001,  0.00000000000000 ]
      - [ -0.00004687846888,  0.00000000000000 ]
  - # 2
    frequency:    0.1460493792
    eigenvector:
    - # atom 1
      - [ -0.00002014451217,  0.00000000000000 ]
      - [  0.00000000000000, -0.00000000000000 ]
      - [ -0.39480891741082,  0.00000000000027 ]
    - # atom 2
      - [ -0.00004687846888,  0.00000000000000 ]
      - [  0.00000000000000, -0.00000000000000 ]
      - [ -0.91876325358032,  0.00000000000063 ]
  - # 3
    frequency:    0.3371562695
    eigenvector:
    - # atom 1
      - [ -0.00000000000001,  0.00000000000000 ]
      - [ -0.39266620826213,  0.00391845191527 ]
      - [ -0.00000000000000, -0.00000000000000 ]
    - # atom 2
      - [ -0.00000000000001,  0.00000000000000 ]
      - [ -0.91962692247612,  0.00917704095715 ]
      - [ -0.00000000000000, -0.00000000000000 ]
  - # 4
    frequency:    6.0328490963
    eigenvector:
    - # atom 1
      - [ -0.00000000000000,  0.00000000000000 ]
      - [ -0.00000000000004, -0.00000000000000 ]
      - [  0.91876325477628, -0.00000000000084 ]
    - # atom 2
      - [ -0.00000000000000,  0.00000000000000 ]
      - [  0.00000000000002,  0.00000000000000 ]
      - [ -0.39480891792474,  0.00000000000036 ]
  - # 5
    frequency:    6.0328490963
    eigenvector:
    - # atom 1
      - [  0.91876325477628,  0.00000000000000 ]
      - [ -0.00000000000000, -0.00000000000000 ]
      - [  0.00000000000000,  0.00000000000000 ]
    - # atom 2
      - [ -0.39480891792474,  0.00000000000000 ]
      - [  0.00000000000000,  0.00000000000000 ]
      - [ -0.00000000000000,  0.00000000000000 ]
  - # 6
    frequency:    6.0617027842
    eigenvector:
    - # atom 1
      - [  0.00000000000000,  0.00000000000000 ]
      - [  0.91965739297563,  0.00530793452267 ]
      - [  0.00000000000004, -0.00000000000000 ]
    - # atom 2
      - [  0.00000000000000,  0.00000000000000 ]
      - [ -0.39267921868539, -0.00226640442094 ]
      - [ -0.00000000000002,  0.00000000000000 ]

- q-position: [    0.0300000,    0.0000000,    0.0300000 ]
  distance:    0.0108024
  band:
  - # 1
    frequency:    0.2187179876
    eigenvector:
    - # atom 1
      - [  0.00000000000000,  0.00000000000000 ]
      - [  0.00000000000000, -0.00000000000000 ]
      - [ -0.39406838477971, -0.00000000000002 ]
    - # atom 2
      - [  0.00000000000000,  0.00000000000000 ]
      - [  0.00000000000000, -0.00000000000001 ]
      - [ -0.91908112161936, -0.00000000000005 ]
  - # 2
    frequency:    0.2187179876
    eigenvector:
    - # atom 1
      - [ -0.39406838477971,  0.00000000000000 ]
      - [  0.00000000000000,  0.00000000000000 ]
      - [  0.00000000000000,  0.00000000000000 ]
    - # atom 2
      - [ -0.91908112161936,  0.00000000000000 ]
      - [  0.00000000000000,  0.00000000000000 ]
      - [  0.00000000000000,  0.00000000000000 ]
  - # 3
    frequency:    0.5042097969
    eigenvector:
    - # atom 1
      - [  0.00000000000000,  0.00000000000000 ]
      - [  0.00000000000000, -0.38935500812006 ]
      - [  0.00000000000000, -0.00000000000000 ]
    - # atom 2
      - [ -0.00000000000000,  0.00000000000000 ]
      - [  0.00000000000000, -0.92108776870167 ]
      - [  0.00000000000001, -0.00000000000000 ]
  - # 4
    frequency:    6.0379208518
    eigenvector:
    - # atom 1
      - [ -0.91908112161936,  0.00000000000000 ]
      - [  0.00000000000000,  0.00000000000000 ]
      - [  0.00000000000000, -0.00000000000000 ]
    - # atom 2
      - [  0.39406838477971,  0.00000000000000 ]
      - [ -0.00000000000000, -0.00000000000000 ]
      - [  0.00000000000000,  0.00000000000000 ]
  - # 5
    frequency:    6.0379208518
    eigenvector:
    - # atom 1
      - [  0.00000000000000,  0.00000000000000 ]
      - [ -0.00000000000000, -0.00000000000000 ]
      - [  0.91908112161936,  0.00000000000004 ]
    - # atom 2
      - [  0.00000000000000,  0.00000000000000 ]
      - [  0.00000000000000,  0.00000000000000 ]
      - [ -0.39406838477971, -0.00000000000002 ]
  - # 6
    frequency:    6.1022412071
    eigenvector:
    - # atom 1
      - [ -0.00000000000000,  0.00000000000000 ]
      - [  0.00000000000000,  0.92108776870167 ]
      - [  0.00000000000000,  0.00000000000000 ]
    - # atom 2
      - [ -0.00000000000000,  0.00000000000000 ]
      - [  0.00000000000000, -0.38935500812007 ]
      - [ -0.00000000000000, -0.00000000000000 ]

- q-position: [    0.0400000,    0.0000000,    0.0400000 ]
  distance:    0.0144032
  band:
  - # 1
    frequency:    0.2909768007
    eigenvector:
    - # atom 1
      - [ -0.39304109175810,  0.00000000000000 ]
      - [  0.00000000000000,  0.00000000000000 ]
      - [  0.00000000000000,  0.00000000000000 ]
    - # atom 2
      - [ -0.91952090796762,  0.00000000000000 ]
      - [  0.00000000000000,  0.00000000000000 ]
      - [ -0.00000000000000,  0.00000000000000 ]
  - # 2
    frequency:    0.2909768007
    eigenvector:
    - # atom 1
      - [  0.00000000000000,  0.00000000000000 ]
      - [  0.00000000000000, -0.00000000000000 ]
      - [ -0.39304109175810, -0.00000000000000 ]
    - # atom 2
      - [  0.00000000000000,  0.00000000000000 ]
      - [  0.00000000000000, -0.00000000000000 ]
      - [ -0.91952090796762, -0.00000000000001 ]
  - # 3
    frequency:    0.6694899624
    eigenvector:
    - # atom 1
      - [  0.00000000000000,  0.00000000000000 ]
      - [  0.00000000000000, -0.38481494268852 ]
      - [  0.00000000000000, -0.00000000000000 ]
    - # atom 2
      - [ -0.00000000000000,  0.00000000000000 ]
      - [  0.00000000000000, -0.92299374856151 ]
      - [  0.00000000000000, -0.00000000000000 ]
  - # 4
    frequency:    6.0449552492
    eigenvector:
    - # atom 1
      - [  0.00000000000000,  0.00000000000000 ]
      - [ -0.00000000000000, -0.00000000000000 ]
      - [  0.91952090796762,  0.00000000000002 ]
    - # atom 2
      - [  0.00000000000000,  0.00000000000000 ]
      - [  0.00000000000000,  0.00000000000000 ]
      - [ -0.39304109175810, -0.00000000000001 ]
  - # 5
    frequency:    6.0449552492
    eigenvector:
    - # atom 1
      - [ -0.91952090796762,  0.00000000000000 ]
      - [  0.00000000000000,  0.00000000000000 ]
      - [  0.00000000000000,  0.00000000000000 ]
    - # atom 2
      - [  0.39304109175810,  0.00000000000000 ]
      - [ -0.00000000000000, -0.00000000000000 ]
      - [  0.00000000000000,  0.00000000000000 ]
  - # 6
    frequency:    6.1578335553
    eigenvector:
    - # atom 1
      - [ -0.00000000000000,  0.00000000000000 ]
      - [ -0.00000000000000,  0.92299374856151 ]
      - [  0.00000000000000,  0.00000000000000 ]
    - # atom 2
      - [ -0.00000000000000,  0.00000000000000 ]
      - [ -0.00000000000000, -0.38481494268852 ]
      - [ -0.00000000000000, -0.00000000000000 ]

- q-position: [    0.0500000,    0.0000000,    0.0500000 ]
  distance:    0.0180040
  band:
  - # 1
    frequency:    0.3626928650
    eigenvector:
    - # atom 1
      - [  0.39173628053286,  0.00000000000000 ]
      - [ -0.00000000000000,  0.00000000000000 ]
      - [ -0.00002065394196,  0.00000000000000 ]
    - # atom 2
      - [  0.92007754224003,  0.00000000000000 ]
      - [ -0.00000000000000,  0.00000000000000 ]
      - [ -0.00004851025830,  0.00000000000000 ]
  - # 2
    frequency:    0.3626928650
    eigenvector:
    - # atom 1
      - [ -0.00002065394196,  0.00000000000000 ]
      - [ -0.00000000000000, -0.00000000000000 ]
      - [ -0.39173628053286,  0.00000000000005 ]
    - # atom 2
      - [ -0.00004851025830, -0.00000000000000 ]
      - [ -0.00000000000000, -0.00000000000000 ]
      - [ -0.92007754224003,  0.00000000000012 ]
  - # 3
    frequency:    0.8324824749
    eigenvector:
    - # atom 1
      - [ -0.00000000000000,  0.00000000000000 ]
      - [ -0.37758705542802,  0.03468553435833 ]
      - [  0.00000000000000, -0.00000000000000 ]
    - # atom 2
      - [ -0.00000000000000,  0.00000000000000 ]
      - [ -0.92144461526969,  0.08464484786430 ]
      - [  0.00000000000000, -0.00000000000000 ]
  - # 4
    frequency:    6.0538873151
    eigenvector:
    - # atom 1
      - [  0.92007754351886,  0.00000000000000 ]
      - [  0.00000000000000, -0.00000000000000 ]
      - [  0.00000000000000, -0.00000000000000 ]
    - # atom 2
      - [ -0.39173628107734, -0.00000000000000 ]
      - [ -0.00000000000000,  0.00000000000000 ]
      - [ -0.00000000000000,  0.00000000000000 ]
  - # 5
    frequency:    6.0538873151
    eigenvector:
    - # atom 1
      - [ -0.00000000000000,  0.00000000000000 ]
      - [ -0.00000000000000, -0.00000000000000 ]
      - [  0.92007754351886, -0.00000000000014 ]
    - # atom 2
      - [ -0.00000000000000, -0.00000000000000 ]
      - [  0.00000000000000,  0.00000000000000 ]
      - [ -0.39173628107734,  0.00000000000006 ]
  - # 6
    frequency:    6.2273745395
    eigenvector:
    - # atom 1
      - [  0.00000000000000,  0.00000000000000 ]
      - [  0.92462611434139,  0.03593713897100 ]
      - [  0.00000000000000, -0.00000000000000 ]
    - # atom 2
      - [  0.00000000000000,  0.00000000000000 ]
      - [ -0.37889076142014, -0.01472622256368 ]
      - [ -0.00000000000000,  0.00000000000000 ]

- q-position: [    0.0600000,    0.0000000,    0.0600000 ]
  distance:    0.0216049
  band:
  - # 1
    frequency:    0.4337385987
    eigenvector:
    - # atom 1
      - [ -0.39016554115855,  0.00000000000000 ]
      - [  0.00000000000000,  0.00000000000000 ]
      - [  0.00000000000000,  0.00000000000000 ]
    - # atom 2
      - [ -0.92074472601936,  0.00000000000000 ]
      - [  0.00000000000000,  0.00000000000000 ]
      - [ -0.00000000000000,  0.00000000000000 ]
  - # 2
    frequency:    0.4337385987
    eigenvector:
    - # atom 1
      - [  0.00000000000000,  0.00000000000000 ]
      - [  0.00000000000000,  0.00000000000000 ]
      - [ -0.39016554115855, -0.00000000000002 ]
    - # atom 2
      - [  0.00000000000000,  0.00000000000000 ]
      - [  0.00000000000000,  0.00000000000000 ]
      - [ -0.92074472601936, -0.00000000000005 ]
  - # 3
    frequency:    0.9927294586
    eigenvector:
    - # atom 1
      - [  0.00000000000000,  0.00000000000000 ]
      - [  0.00000000000000, -0.37256868283591 ]
      - [ -0.00000000000000, -0.00000000000000 ]
    - # atom 2
      - [ -0.00000000000000,  0.00000000000000 ]
      - [  0.00000000000000, -0.92800462098522 ]
      - [ -0.00000000000000, -0.00000000000000 ]
  - # 4
    frequency:    6.0646350447
    eigenvector:
    - # atom 1
      - [ -0.92074472601936,  0.00000000000000 ]
      - [  0.00000000000000,  0.00000000000000 ]
      - [  0.00000000000000,  0.00000000000000 ]
    - # atom 2
      - [  0.39016554115855,  0.00000000000000 ]
      - [ -0.00000000000000, -0.00000000000000 ]
      - [  0.00000000000000,  0.00000000000000 ]
  - # 5
    frequency:    6.0646350447
    eigenvector:
    - # atom 1
      - [  0.00000000000000,  0.00000000000000 ]
      - [  0.00000000000000, -0.00000000000000 ]
      - [ -0.92074472601936, -0.00000000000003 ]
    - # atom 2
      - [  0.00000000000000,  0.00000000000000 ]
      - [ -0.00000000000000,  0.00000000000000 ]
      - [  0.39016554115855,  0.00000000000001 ]
  - # 6
    frequency:    6.3095180980
    eigenvector:
    - # atom 1
      - [ -0.00000000000000,  0.00000000000000 ]
      - [  0.00000000000000, -0.92800462098522 ]
      - [  0.00000000000000, -0.00000000000000 ]
    - # atom 2
      - [  0.00000000000000,  0.00000000000000 ]
      - [  0.00000000000000,  0.37256868283591 ]
      - [ -0.00000000000000,  0.00000000000000 ]

- q-position: [    0.0700000,    0.0000000,    0.0700000 ]
  distance:    0.0252057
  band:
  - # 1
    frequency:    0.5039921464
    eigenvector:
    - # atom 1
      - [ -0.00007189053044,  0.00000000000000 ]
      - [  0.00000000000000, -0.00000000000000 ]
      - [ -0.38834259150968,  0.00000000000005 ]
    - # atom 2
      - [ -0.00017059217194,  0.00000000000000 ]
      - [  0.00000000000000, -0.00000000000000 ]
      - [ -0.92151505541126,  0.00000000000012 ]
  - # 2
    frequency:    0.5039921464
    eigenvector:
    - # atom 1
      - [  0.38834259150968,  0.00000000000000 ]
      - [ -0.00000000000000,  0.00000000000000 ]
      - [ -0.00007189053044,  0.00000000000000 ]
    - # atom 2
      - [  0.92151505541126,  0.00000000000000 ]
      - [ -0.00000000000000,  0.00000000000000 ]
      - [ -0.00017059217194,  0.00000000000000 ]
  - # 3
    frequency:    1.1498322317
    eigenvector:
    - # atom 1
      - [ -0.00000000000000,  0.00000000000000 ]
      - [ -0.36366550917882,  0.03263115556950 ]
      - [ -0.00000000000000, -0.00000000000000 ]
    - # atom 2
      - [ -0.00000000000000,  0.00000000000000 ]
      - [ -0.92723271099509,  0.08319918737944 ]
      - [ -0.00000000000000, -0.00000000000000 ]
  - # 4
    frequency:    6.0771005170
    eigenvector:
    - # atom 1
      - [ -0.00000000000000,  0.00000000000000 ]
      - [ -0.00000000000000, -0.00000000000000 ]
      - [  0.92151507120139, -0.00000000000034 ]
    - # atom 2
      - [ -0.00000000000000,  0.00000000000000 ]
      - [  0.00000000000000,  0.00000000000000 ]
      - [ -0.38834259816392,  0.00000000000014 ]
  - # 5
    frequency:    6.0771005170
    eigenvector:
    - # atom 1
      - [  0.92151507120139,  0.00000000000000 ]
      - [  0.00000000000000, -0.00000000000000 ]
      - [  0.00000000000000,  0.00000000000000 ]
    - # atom 2
      - [ -0.38834259816392,  0.00000000000000 ]
      - [  0.00000000000000,  0.00000000000000 ]
      - [ -0.00000000000000, -0.00000000000000 ]
  - # 6
    frequency:    6.4027253348
    eigenvector:
    - # atom 1
      - [  0.00000000000000,  0.00000000000000 ]
      - [  0.93003015081094,  0.04155145848805 ]
      - [  0.00000000000000, -0.00000000000000 ]
    - # atom 2
      - [  0.00000000000000,  0.00000000000000 ]
      - [ -0.36476267967654, -0.01629669890740 ]
      - [ -0.00000000000000,  0.00000000000000 ]

- q-position: [    0.0800000,    0.0000000,    0.0800000 ]
  distance:    0.0288065
  band:
  - # 1
    frequency:    0.5733380392
    eigenvector:
    - # atom 1
      - [  0.38628307014266,  0.00000000000000 ]
      - [  0.00000000000000,  0.00000000000000 ]
      - [ -0.00005703812020,  0.00000000000000 ]
    - # atom 2
      - [  0.92238027294496,  0.00000000000000 ]
      - [  0.00000000000000,  0.00000000000000 ]
      - [ -0.00013619762539,  0.00000000000000 ]
  - # 2
    frequency:    0.5733380392
    eigenvector:
    - # atom 1
      - [ -0.00005703812020,  0.00000000000000 ]
      - [ -0.00000000000000,  0.00000000000000 ]
      - [ -0.38628307014266,  0.00000000000007 ]
    - # atom 2
      - [ -0.00013619762539,  0.00000000000000 ]
      - [ -0.00000000000000,  0.00000000000000 ]
      - [ -0.92238027294496,  0.00000000000017 ]
  - # 3
    frequency:    1.3034496666
    eigenvector:
    - # atom 1
      - [ -0.00000000000000,  0.00000000000000 ]
      - [  0.35660645852256,  0.01646233746401 ]
      - [ -0.00000000000000, -0.00000000000000 ]
    - # atom 2
      - [ -0.00000000000000,  0.00000000000000 ]
      - [  0.93311588880733,  0.04307624914652 ]
      - [ -0.00000000000000, -0.00000000000000 ]
  - # 4
    frequency:    6.0911712196
    eigenvector:
    - # atom 1
      - [  0.92238028300035,  0.00000000000000 ]
      - [  0.00000000000000, -0.00000000000000 ]
      - [  0.00000000000000,  0.00000000000000 ]
    - # atom 2
      - [ -0.38628307435376,  0.00000000000000 ]
      - [ -0.00000000000000,  0.00000000000000 ]
      - [ -0.00000000000000, -0.00000000000000 ]
  - # 5
    frequency:    6.0911712196
    eigenvector:
    - # atom 1
      - [  0.00000000000000,  0.00000000000000 ]
      - [ -0.00000000000000,  0.00000000000000 ]
      - [ -0.92238028300035,  0.00000000000035 ]
    - # atom 2
      - [  0.00000000000000,  0.00000000000000 ]
      - [  0.00000000000000, -0.00000000000000 ]
      - [  0.38628307435376, -0.00000000000015 ]
  - # 6
    frequency:    6.5053152287
    eigenvector:
    - # atom 1
      - [  0.00000000000000,  0.00000000000000 ]
      - [ -0.93388224909379,  0.02060994936278 ]
      - [  0.00000000000000, -0.00000000000000 ]
    - # atom 2
      - [  0.00000000000000,  0.00000000000000 ]
      - [  0.35689933642871, -0.00787645043960 ]
      - [ -0.00000000000000,  0.00000000000000 ]

- q-position: [    0.0900000,    0.0000000,    0.0900000 ]
  distance:    0.0324073
  band:
  - # 1
    frequency:    0.6416678105
    eigenvector:
    - # atom 1
      - [ -0.38400421967241,  0.00000000000000 ]
      - [  0.00000000000000, -0.00000000000000 ]
      - [  0.00002270671204, -0.00000000000000 ]
    - # atom 2
      - [ -0.92333133585797,  0.00000000000000 ]
      - [  0.00000000000000, -0.00000000000000 ]
      - [  0.00005459788640, -0.00000000000000 ]
  - # 2
    frequency:    0.6416678105
    eigenvector:
    - # atom 1
      - [ -0.00002270671204,  0.00000000000000 ]
      - [ -0.00000000000000, -0.00000000000000 ]
      - [ -0.38400421967241,  0.00000000000003 ]
    - # atom 2
      - [ -0.00005459788640,  0.00000000000000 ]
      - [ -0.00000000000000,  0.00000000000000 ]
      - [ -0.92333133585797,  0.00000000000008 ]
  - # 3
    frequency:    1.4532929366
    eigenvector:
    - # atom 1
      - [  0.00000000000000, -0.00000000000000 ]
      - [  0.34787775867866, -0.01665403328236 ]
      - [ -0.00000000000000,  0.00000000000000 ]
    - # atom 2
      - [  0.00000000000000,  0.00000000000000 ]
      - [  0.93631963508737, -0.04482464882175 ]
      - [ -0.00000000000000,  0.00000000000000 ]
  - # 4
    frequency:    6.1067215616
    eigenvector:
    - # atom 1
      - [ -0.00000000000000,  0.00000000000000 ]
      - [  0.00000000000000,  0.00000000000000 ]
      - [  0.92333133747219,  0.00000000000045 ]
    - # atom 2
      - [ -0.00000000000000,  0.00000000000000 ]
      - [ -0.00000000000000,  0.00000000000000 ]
      - [ -0.38400422034375, -0.00000000000019 ]
  - # 5
    frequency:    6.1067215616
    eigenvector:
    - # atom 1
      - [  0.92333133747219,  0.00000000000000 ]
      - [ -0.00000000000000, -0.00000000000000 ]
      - [ -0.00000000000000, -0.00000000000000 ]
    - # atom 2
      - [ -0.38400422034375,  0.00000000000000 ]
      - [  0.00000000000000,  0.00000000000000 ]
      - [ -0.00000000000000,  0.00000000000000 ]
  - # 6
    frequency:    6.6155150300
    eigenvector:
    - # atom 1
      - [ -0.00000000000000,  0.00000000000000 ]
      - [ -0.93716886652501, -0.02045052098019 ]
      - [  0.00000000000000, -0.00000000000000 ]
    - # atom 2
      - [  0.00000000000000,  0.00000000000000 ]
      - [  0.34819327991527,  0.00759813330384 ]
      - [ -0.00000000000000,  0.00000000000000 ]

- q-position: [    0.1000000,    0.0000000,    0.1000000 ]
  distance:    0.0360081
  band:
  - # 1
    frequency:    0.7088804923
    eigenvector:
    - # atom 1
      - [  0.00000000000000,  0.00000000000000 ]
      - [ -0.00000000000000, -0.00000000000000 ]
      - [ -0.38152462892993, -0.00000000000000 ]
    - # atom 2
      - [ -0.00000000000000,  0.00000000000000 ]
      - [  0.00000000000000, -0.00000000000000 ]
      - [ -0.92435867363263, -0.00000000000000 ]
  - # 2
    frequency:    0.7088804923
    eigenvector:
    - # atom 1
      - [ -0.38152462892993,  0.00000000000000 ]
      - [  0.00000000000000,  0.00000000000000 ]
      - [  0.00000000000000, -0.00000000000000 ]
    - # atom 2
      - [ -0.92435867363263,  0.00000000000000 ]
      - [  0.00000000000000,  0.00000000000000 ]
      - [  0.00000000000000,  0.00000000000000 ]
  - # 3
    frequency:    1.5991178382
    eigenvector:
    - # atom 1
      - [  0.00000000000000,  0.00000000000000 ]
      - [ -0.00000000000000, -0.33911178203362 ]
      - [  0.00000000000000, -0.00000000000000 ]
    - # atom 2
      - [ -0.00000000000000,  0.00000000000000 ]
      - [  0.00000000000000, -0.94074608651112 ]
      - [  0.00000000000000,  0.00000000000000 ]
  - # 4
    frequency:    6.1236145488
    eigenvector:
    - # atom 1
      - [  0.00000000000000,  0.00000000000000 ]
      - [  0.00000000000000,  0.00000000000000 ]
      - [  0.92435867363263, -0.00000000000000 ]
    - # atom 2
      - [ -0.00000000000000,  0.00000000000000 ]
      - [  0.00000000000000, -0.00000000000000 ]
      - [ -0.38152462892993, -0.00000000000000 ]
  - # 5
    frequency:    6.1236145488
    eigenvector:
    - # atom 1
      - [ -0.92435867363263,  0.00000000000000 ]
      - [  0.00000000000000,  0.00000000000000 ]
      - [  0.00000000000000,  0.00000000000000 ]
    - # atom 2
      - [  0.38152462892993,  0.00000000000000 ]
      - [ -0.00000000000000, -0.00000000000000 ]
      - [ -0.00000000000000,  0.00000000000000 ]
  - # 6
    frequency:    6.7315077825
    eigenvector:
    - # atom 1
      - [  0.00000000000000,  0.00000000000000 ]
      - [ -0.00000000000000, -0.94074608651112 ]
      - [  0.00000000000000, -0.00000000000000 ]
    - # atom 2
      - [  0.00000000000000,  0.00000000000000 ]
      - [  0.00000000000000,  0.33911178203362 ]
      - [ -0.00000000000000, -0.00000000000000 ]

- q-position: [    0.1100000,    0.0000000,    0.1100000 ]
  distance:    0.0396089
  band:
  - # 1
    frequency:    0.7748829700
    eigenvector:
    - # atom 1
      - [ -0.01070103256379,  0.00000000000000 ]
      - [  0.00000000000000,  0.00000000000000 ]
      - [  0.37871278265230,  0.00000000000000 ]
    - # atom 2
      - [ -0.02613945297849,  0.00000000000000 ]
      - [  0.00000000000000,  0.00000000000000 ]
      - [  0.92508315580590,  0.00000000000000 ]
  - # 2
    frequency:    0.7748829700
    eigenvector:
    - # atom 1
      - [  0.37871278265230, -0.00000000000000 ]
      - [  0.00000000000000,  0.00000000000000 ]
      - [  0.01070103256379,  0.00000000000000 ]
    - # atom 2
      - [  0.92508315580590,  0.00000000000000 ]
      - [  0.00000000000000,  0.00000000000000 ]
      - [  0.02613945297849,  0.00000000000000 ]
  - # 3
    frequency:    1.7407159142
    eigenvector:
    - # atom 1
      - [ -0.00000000000000,  0.00000000000000 ]
      - [  0.32915884498216,  0.01688709178675 ]
      - [ -0.00000000000000,  0.00000000000000 ]
    - # atom 2
      - [ -0.00000000000000,  0.00000000000000 ]
      - [  0.94288349595327,  0.04837348405825 ]
      - [ -0.00000000000000,  0.00000000000000 ]
  - # 4
    frequency:    6.1417035930
    eigenvector:
    - # atom 1
      - [  0.92545238459784,  0.00000000000000 ]
      - [  0.00000000000000, -0.00000000000000 ]
      - [ -0.00000000000000, -0.00000000000000 ]
    - # atom 2
      - [ -0.37886393842932, -0.00000000000000 ]
      - [ -0.00000000000000,  0.00000000000000 ]
      - [  0.00000000000000,  0.00000000000000 ]
  - # 5
    frequency:    6.1417035930
    eigenvector:
    - # atom 1
      - [ -0.00000000000000,  0.00000000000000 ]
      - [ -0.00000000000000,  0.00000000000000 ]
      - [ -0.92545238459784,  0.00000000000000 ]
    - # atom 2
      - [  0.00000000000000,  0.00000000000000 ]
      - [  0.00000000000000, -0.00000000000000 ]
      - [  0.37886393842932, -0.00000000000000 ]
  - # 6
    frequency:    6.8514751123
    eigenvector:
    - # atom 1
      - [  0.00000000000000,  0.00000000000000 ]
      - [ -0.94391071096122,  0.02004621245241 ]
      - [  0.00000000000000,  0.00000000000000 ]
    - # atom 2
      - [ -0.00000000000000,  0.00000000000000 ]
      - [  0.32951744379846, -0.00699809484992 ]
      - [ -0.00000000000000, -0.00000000000000 ]

- q-position: [    0.1200000,    0.0000000,    0.1200000 ]
  distance:    0.0432097
  band:
  - # 1
    frequency:    0.8395901929
    eigenvector:
    - # atom 1
      - [  0.00000000000000,  0.00000000000000 ]
      - [ -0.00000000000000,  0.00000000000000 ]
      - [ -0.37604253344842,  0.00000000000006 ]
    - # atom 2
      - [  0.00000000000000,  0.00000000000000 ]
      - [ -0.00000000000000,  0.00000000000000 ]
      - [ -0.92660240288794,  0.00000000000014 ]
  - # 2
    frequency:    0.8395901929
    eigenvector:
    - # atom 1