# epsilon and Z* of atoms 1 5 7 11
   9.95572864   -0.00000000    0.00000000    0.00000000    9.95572864    0.00000000    0.00000000    0.00000000    7.26638411 
   2.59617476    0.15157255    0.00000000   -0.15157255    2.59617476   -0.00000000    0.00000000    0.00000000    1.67740806 
   2.53672774    0.00000000    0.00000000    0.00000000    2.53672774   -0.00000000    0.00000000    0.00000000    3.83798980 
   2.25151257   -0.40006531    0.00000000    0.40006531    2.25151257   -0.00000000    0.00000000    0.00000000    0.56308628 
  -2.16289873   -0.20320462    0.14077934   -0.20699478   -1.91446874    0.51380594    0.32496098    0.42685920   -1.38649641 
